<?xml version="1.0" encoding="UTF-8"?>

<!-- generated on 2024-10-16 20:45:35 by Eclipse SUMO GUI Version 1.20.0
<configuration xmlns:xsi="http://www.w3.org/2001/XMLSchema-instance" xsi:noNamespaceSchemaLocation="http://sumo.dlr.de/xsd/sumoConfiguration.xsd">

    <input>
        <net-file value="MODEL1.net.xml"/>
        <route-files value="MODEL1sumo.rou.xml"/>
        <additional-files value="MODEL1.add.xml"/>
    </input>

    <output>
        <tripinfo-output value="tripinfo_output.xml"/>
    </output>

    <time>
        <end value="3600"/>
    </time>

    <report>
        <log value="simulation_log.xml"/>
    </report>

</configuration>
-->

<tripinfos xmlns:xsi="http://www.w3.org/2001/XMLSchema-instance" xsi:noNamespaceSchemaLocation="http://sumo.dlr.de/xsd/tripinfo_file.xsd">
</tripinfos>
id="f_10.0" depart="0.00" departLane="-E3_0" departPos="5.10" depar</tripinfos>
departDelay="0.00" arrival="9.00" arrivalLane="E2_1" arrivalPos="29.14" arrivalSpeed="13.30" duration="9.00" routeLength="76.39" waitingTime="0.00" waitingCount="0" stopTime="0.00" timeLoss="3.16" rerouteNo="0" devices="tripinfo_f_10.0 routing_f_10.0" vType="DEFAULT_VEHTYPE" speedFactor="1.01" vaporized=""/>
    <tripinfo id="f_1.0" depart="1.00" departLane="E0_0" departPos="5.10" departSpeed="0.00" departDelay="1.00" arrival="11.00" arrivalLane="E3_0" arrivalPos="25.12" arrivalSpeed="11.48" duration="10.00" routeLength="64.90" waitingTime="0.00" waitingCount="0" stopTime="0.00" timeLoss="4.21" rerouteNo="0" devices="tripinfo_f_1.0 routing_f_1.0" vType="DEFAULT_VEHTYPE" speedFactor="0.94" vaporized=""/>
    <tripinfo id="f_3.0" depart="0.00" departLane="-E2_0" departPos="5.10" departSpeed="0.00" departDelay="0.00" arrival="11.00" arrivalLane="-E0_0" arrivalPos="35.77" arrivalSpeed="11.12" duration="11.00" routeLength="68.83" waitingTime="0.00" waitingCount="0" stopTime="0.00" timeLoss="3.64" rerouteNo="0" devices="tripinfo_f_3.0 routing_f_3.0" vType="DEFAULT_VEHTYPE" speedFactor="0.83" vaporized=""/>
    <tripinfo id="f_4.0" depart="3.00" departLane="-E2_0" departPos="5.10" departSpeed="0.00" departDelay="3.00" arrival="12.00" arrivalLane="E3_1" arrivalPos="25.12" arrivalSpeed="13.87" duration="9.00" routeLength="76.38" waitingTime="0.00" waitingCount="0" stopTime="0.00" timeLoss="3.32" rerouteNo="0" devices="tripinfo_f_4.0 routing_f_4.0" vType="DEFAULT_VEHTYPE" speedFactor="1.05" vaporized=""/>
    <tripinfo id="f_9.0" depart="3.00" departLane="-E3_0" departPos="5.10" departSpeed="0.00" departDelay="3.00" arrival="13.00" arrivalLane="E1_0" arrivalPos="39.21" arrivalSpeed="13.85" duration="10.00" routeLength="68.27" waitingTime="0.00" waitingCount="0" stopTime="0.00" timeLoss="4.14" rerouteNo="0" devices="tripinfo_f_9.0 routing_f_9.0" vType="DEFAULT_VEHTYPE" speedFactor="1.03" vaporized=""/>
    <tripinfo id="f_7.0" depart="1.00" departLane="-E1_0" departPos="5.10" departSpeed="0.00" departDelay="1.00" arrival="14.00" arrivalLane="E2_0" arrivalPos="29.14" arrivalSpeed="10.87" duration="13.00" routeLength="72.30" waitingTime="0.00" waitingCount="0" stopTime="0.00" timeLoss="5.22" rerouteNo="0" devices="tripinfo_f_7.0 routing_f_7.0" vType="DEFAULT_VEHTYPE" speedFactor="0.86" vaporized=""/>
    <tripinfo id="f_1.1" depart="6.00" departLane="E0_0" departPos="5.10" departSpeed="0.00" departDelay="4.00" arrival="15.00" arrivalLane="E3_0" arrivalPos="25.12" arrivalSpeed="11.86" duration="9.00" routeLength="64.90" waitingTime="0.00" waitingCount="0" stopTime="0.00" timeLoss="4.34" rerouteNo="0" devices="tripinfo_f_1.1 routing_f_1.1" vType="DEFAULT_VEHTYPE" speedFactor="1.12" vaporized=""/>
    <tripinfo id="f_10.1" depart="6.00" departLane="-E3_0" departPos="5.10" departSpeed="0.00" departDelay="4.00" arrival="15.00" arrivalLane="E2_1" arrivalPos="29.14" arrivalSpeed="13.76" duration="9.00" routeLength="76.39" waitingTime="0.00" waitingCount="0" stopTime="0.00" timeLoss="2.85" rerouteNo="0" devices="tripinfo_f_10.1 routing_f_10.1" vType="DEFAULT_VEHTYPE" speedFactor="0.99" vaporized=""/>
    <tripinfo id="f_3.1" depart="6.00" departLane="-E2_0" departPos="5.10" departSpeed="0.00" departDelay="4.00" arrival="16.00" arrivalLane="-E0_0" arrivalPos="35.77" arrivalSpeed="12.24" duration="10.00" routeLength="68.83" waitingTime="0.00" waitingCount="0" stopTime="0.00" timeLoss="3.83" rerouteNo="0" devices="tripinfo_f_3.1 routing_f_3.1" vType="DEFAULT_VEHTYPE" speedFactor="0.94" vaporized=""/>
    <tripinfo id="f_7.1" depart="6.00" departLane="-E1_0" departPos="5.10" departSpeed="0.00" departDelay="4.00" arrival="16.00" arrivalLane="E2_0" arrivalPos="29.14" arrivalSpeed="12.28" duration="10.00" routeLength="72.30" waitingTime="0.00" waitingCount="0" stopTime="0.00" timeLoss="4.18" rerouteNo="0" devices="tripinfo_f_7.1 routing_f_7.1" vType="DEFAULT_VEHTYPE" speedFactor="1.01" vaporized=""/>
    <tripinfo id="f_5.0" depart="4.00" departLane="-E2_0" departPos="5.10" departSpeed="0.00" departDelay="4.00" arrival="18.00" arrivalLane="E1_2" arrivalPos="39.21" arrivalSpeed="11.88" duration="14.00" routeLength="87.78" waitingTime="1.00" waitingCount="1" stopTime="0.00" timeLoss="5.87" rerouteNo="0" devices="tripinfo_f_5.0 routing_f_5.0" vType="DEFAULT_VEHTYPE" speedFactor="0.89" vaporized=""/>
    <tripinfo id="f_4.1" depart="9.00" departLane="-E2_0" departPos="5.10" departSpeed="0.00" departDelay="7.00" arrival="18.00" arrivalLane="E3_1" arrivalPos="25.12" arrivalSpeed="12.19" duration="9.00" routeLength="76.38" waitingTime="0.00" waitingCount="0" stopTime="0.00" timeLoss="3.12" rerouteNo="0" devices="tripinfo_f_4.1 routing_f_4.1" vType="DEFAULT_VEHTYPE" speedFactor="0.94" vaporized=""/>
    <tripinfo id="f_9.1" depart="9.00" departLane="-E3_0" departPos="5.10" departSpeed="0.00" departDelay="7.00" arrival="19.00" arrivalLane="E1_0" arrivalPos="39.21" arrivalSpeed="11.27" duration="10.00" routeLength="68.27" waitingTime="0.00" waitingCount="0" stopTime="0.00" timeLoss="3.97" rerouteNo="0" devices="tripinfo_f_9.1 routing_f_9.1" vType="DEFAULT_VEHTYPE" speedFactor="0.89" vaporized=""/>
    <tripinfo id="f_1.2" depart="11.00" departLane="E0_0" departPos="5.10" departSpeed="0.00" departDelay="7.00" arrival="21.00" arrivalLane="E3_0" arrivalPos="25.12" arrivalSpeed="11.36" duration="10.00" routeLength="64.90" waitingTime="0.00" waitingCount="0" stopTime="0.00" timeLoss="3.93" rerouteNo="0" devices="tripinfo_f_1.2 routing_f_1.2" vType="DEFAULT_VEHTYPE" speedFactor="0.87" vaporized=""/>
    <tripinfo id="f_10.2" depart="12.00" departLane="-E3_0" departPos="5.10" departSpeed="0.00" departDelay="8.00" arrival="22.00" arrivalLane="E2_1" arrivalPos="29.14" arrivalSpeed="11.54" duration="10.00" routeLength="76.39" waitingTime="0.00" waitingCount="0" stopTime="0.00" timeLoss="3.12" rerouteNo="0" devices="tripinfo_f_10.2 routing_f_10.2" vType="DEFAULT_VEHTYPE" speedFactor="0.92" vaporized=""/>
    <tripinfo id="f_7.2" depart="11.00" departLane="-E1_0" departPos="5.10" departSpeed="0.00" departDelay="7.00" arrival="22.00" arrivalLane="E2_0" arrivalPos="29.14" arrivalSpeed="13.30" duration="11.00" routeLength="72.30" waitingTime="0.00" waitingCount="0" stopTime="0.00" timeLoss="5.52" rerouteNo="0" devices="tripinfo_f_7.2 routing_f_7.2" vType="DEFAULT_VEHTYPE" speedFactor="1.17" vaporized=""/>
    <tripinfo id="f_3.2" depart="12.00" departLane="-E2_0" departPos="5.10" departSpeed="0.00" departDelay="8.00" arrival="23.00" arrivalLane="-E0_0" arrivalPos="35.77" arrivalSpeed="12.04" duration="11.00" routeLength="68.83" waitingTime="0.00" waitingCount="0" stopTime="0.00" timeLoss="4.03" rerouteNo="0" devices="tripinfo_f_3.2 routing_f_3.2" vType="DEFAULT_VEHTYPE" speedFactor="0.93" vaporized=""/>
    <tripinfo id="f_4.2" depart="15.00" departLane="-E2_0" departPos="5.10" departSpeed="0.00" departDelay="11.00" arrival="24.00" arrivalLane="E3_1" arrivalPos="25.12" arrivalSpeed="15.67" duration="9.00" routeLength="76.38" waitingTime="0.00" waitingCount="0" stopTime="0.00" timeLoss="3.47" rerouteNo="0" devices="tripinfo_f_4.2 routing_f_4.2" vType="DEFAULT_VEHTYPE" speedFactor="1.18" vaporized=""/>
    <tripinfo id="f_9.2" depart="15.00" departLane="-E3_0" departPos="5.10" departSpeed="0.00" departDelay="11.00" arrival="25.00" arrivalLane="E1_0" arrivalPos="39.21" arrivalSpeed="13.61" duration="10.00" routeLength="68.27" waitingTime="0.00" waitingCount="0" stopTime="0.00" timeLoss="4.32" rerouteNo="0" devices="tripinfo_f_9.2 routing_f_9.2" vType="DEFAULT_VEHTYPE" speedFactor="1.02" vaporized=""/>
    <tripinfo id="f_1.3" depart="16.00" departLane="E0_0" departPos="5.10" departSpeed="0.00" departDelay="10.00" arrival="26.00" arrivalLane="E3_0" arrivalPos="25.12" arrivalSpeed="13.09" duration="10.00" routeLength="64.90" waitingTime="0.00" waitingCount="0" stopTime="0.00" timeLoss="4.81" rerouteNo="0" devices="tripinfo_f_1.3 routing_f_1.3" vType="DEFAULT_VEHTYPE" speedFactor="1.18" vaporized=""/>
    <tripinfo id="f_10.3" depart="18.00" departLane="-E3_0" departPos="5.10" departSpeed="0.00" departDelay="12.00" arrival="27.00" arrivalLane="E2_1" arrivalPos="29.14" arrivalSpeed="14.87" duration="9.00" routeLength="76.39" waitingTime="0.00" waitingCount="0" stopTime="0.00" timeLoss="3.49" rerouteNo="0" devices="tripinfo_f_10.3 routing_f_10.3" vType="DEFAULT_VEHTYPE" speedFactor="1.10" vaporized=""/>
    <tripinfo id="f_7.3" depart="16.00" departLane="-E1_0" departPos="5.10" departSpeed="0.00" departDelay="10.00" arrival="27.00" arrivalLane="E2_0" arrivalPos="29.14" arrivalSpeed="14.25" duration="11.00" routeLength="72.30" waitingTime="0.00" waitingCount="0" stopTime="0.00" timeLoss="4.54" rerouteNo="0" devices="tripinfo_f_7.3 routing_f_7.3" vType="DEFAULT_VEHTYPE" speedFactor="1.09" vaporized=""/>
    <tripinfo id="f_3.3" depart="18.00" departLane="-E2_0" departPos="5.10" departSpeed="0.00" departDelay="12.00" arrival="29.00" arrivalLane="-E0_0" arrivalPos="35.77" arrivalSpeed="12.58" duration="11.00" routeLength="68.83" waitingTime="0.00" waitingCount="0" stopTime="0.00" timeLoss="4.52" rerouteNo="0" devices="tripinfo_f_3.3 routing_f_3.3" vType="DEFAULT_VEHTYPE" speedFactor="0.96" vaporized=""/>
    <tripinfo id="f_4.3" depart="21.00" departLane="-E2_0" departPos="5.10" departSpeed="0.00" departDelay="15.00" arrival="30.00" arrivalLane="E3_1" arrivalPos="25.12" arrivalSpeed="13.88" duration="9.00" routeLength="76.38" waitingTime="0.00" waitingCount="0" stopTime="0.00" timeLoss="3.43" rerouteNo="0" devices="tripinfo_f_4.3 routing_f_4.3" vType="DEFAULT_VEHTYPE" speedFactor="1.09" vaporized=""/>
    <tripinfo id="f_9.3" depart="21.00" departLane="-E3_0" departPos="5.10" departSpeed="0.00" departDelay="15.00" arrival="32.00" arrivalLane="E1_0" arrivalPos="39.21" arrivalSpeed="11.36" duration="11.00" routeLength="68.27" waitingTime="0.00" waitingCount="0" stopTime="0.00" timeLoss="4.24" rerouteNo="0" devices="tripinfo_f_9.3 routing_f_9.3" vType="DEFAULT_VEHTYPE" speedFactor="0.90" vaporized=""/>
    <tripinfo id="f_7.4" depart="22.00" departLane="-E1_0" departPos="5.10" departSpeed="0.00" departDelay="14.00" arrival="33.00" arrivalLane="E2_0" arrivalPos="29.14" arrivalSpeed="12.72" duration="11.00" routeLength="72.30" waitingTime="0.00" waitingCount="0" stopTime="0.00" timeLoss="5.47" rerouteNo="0" devices="tripinfo_f_7.4 routing_f_7.4" vType="DEFAULT_VEHTYPE" speedFactor="1.14" vaporized=""/>
    <tripinfo id="f_10.4" depart="24.00" departLane="-E3_0" departPos="5.10" departSpeed="0.00" departDelay="16.00" arrival="34.00" arrivalLane="E2_1" arrivalPos="29.14" arrivalSpeed="11.65" duration="10.00" routeLength="76.39" waitingTime="0.00" waitingCount="0" stopTime="0.00" timeLoss="2.91" rerouteNo="0" devices="tripinfo_f_10.4 routing_f_10.4" vType="DEFAULT_VEHTYPE" speedFactor="0.85" vaporized=""/>
    <tripinfo id="f_3.4" depart="24.00" departLane="-E2_0" departPos="5.10" departSpeed="0.00" departDelay="16.00" arrival="34.00" arrivalLane="-E0_0" arrivalPos="35.77" arrivalSpeed="13.88" duration="10.00" routeLength="68.83" waitingTime="0.00" waitingCount="0" stopTime="0.00" timeLoss="4.30" rerouteNo="0" devices="tripinfo_f_3.4 routing_f_3.4" vType="DEFAULT_VEHTYPE" speedFactor="1.10" vaporized=""/>
    <tripinfo id="f_4.4" depart="27.00" departLane="-E2_0" departPos="5.10" departSpeed="0.00" departDelay="19.00" arrival="36.00" arrivalLane="E3_1" arrivalPos="25.12" arrivalSpeed="13.13" duration="9.00" routeLength="76.38" waitingTime="0.00" waitingCount="0" stopTime="0.00" timeLoss="3.41" rerouteNo="0" devices="tripinfo_f_4.4 routing_f_4.4" vType="DEFAULT_VEHTYPE" speedFactor="1.00" vaporized=""/>
    <tripinfo id="f_9.4" depart="27.00" departLane="-E3_0" departPos="5.10" departSpeed="0.00" departDelay="19.00" arrival="37.00" arrivalLane="E1_0" arrivalPos="39.21" arrivalSpeed="13.06" duration="10.00" routeLength="68.27" waitingTime="0.00" waitingCount="0" stopTime="0.00" timeLoss="4.13" rerouteNo="0" devices="tripinfo_f_9.4 routing_f_9.4" vType="DEFAULT_VEHTYPE" speedFactor="0.97" vaporized=""/>
    <tripinfo id="f_5.1" depart="10.00" departLane="-E2_0" departPos="5.10" departSpeed="0.00" departDelay="8.00" arrival="39.00" arrivalLane="E1_2" arrivalPos="39.21" arrivalSpeed="14.05" duration="29.00" routeLength="87.78" waitingTime="12.00" waitingCount="2" stopTime="0.00" timeLoss="22.34" rerouteNo="0" devices="tripinfo_f_5.1 routing_f_5.1" vType="DEFAULT_VEHTYPE" speedFactor="1.16" vaporized=""/>
    <tripinfo id="f_11.0" depart="1.00" departLane="-E3_0" departPos="5.10" departSpeed="0.00" departDelay="1.00" arrival="40.00" arrivalLane="-E0_2" arrivalPos="35.77" arrivalSpeed="13.42" duration="39.00" routeLength="80.34" waitingTime="25.00" waitingCount="2" stopTime="0.00" timeLoss="33.06" rerouteNo="0" devices="tripinfo_f_11.0 routing_f_11.0" vType="DEFAULT_VEHTYPE" speedFactor="1.08" vaporized=""/>
    <tripinfo id="f_5.2" depart="16.00" departLane="-E2_0" departPos="5.10" departSpeed="0.00" departDelay="12.00" arrival="40.00" arrivalLane="E1_2" arrivalPos="39.21" arrivalSpeed="14.18" duration="24.00" routeLength="87.78" waitingTime="8.00" waitingCount="2" stopTime="0.00" timeLoss="17.94" rerouteNo="0" devices="tripinfo_f_5.2 routing_f_5.2" vType="DEFAULT_VEHTYPE" speedFactor="1.15" vaporized=""/>
    <tripinfo id="f_11.1" depart="7.00" departLane="-E3_0" departPos="5.10" departSpeed="0.00" departDelay="5.00" arrival="43.00" arrivalLane="-E0_2" arrivalPos="35.77" arrivalSpeed="12.54" duration="36.00" routeLength="80.34" waitingTime="19.00" waitingCount="2" stopTime="0.00" timeLoss="28.43" rerouteNo="0" devices="tripinfo_f_11.1 routing_f_11.1" vType="DEFAULT_VEHTYPE" speedFactor="0.93" vaporized=""/>
    <tripinfo id="f_5.3" depart="22.00" departLane="-E2_0" departPos="5.10" departSpeed="0.00" departDelay="16.00" arrival="43.00" arrivalLane="E1_2" arrivalPos="39.21" arrivalSpeed="13.23" duration="21.00" routeLength="87.78" waitingTime="3.00" waitingCount="2" stopTime="0.00" timeLoss="13.51" rerouteNo="0" devices="tripinfo_f_5.3 routing_f_5.3" vType="DEFAULT_VEHTYPE" speedFactor="1.04" vaporized=""/>
    <tripinfo id="f_11.2" depart="13.00" departLane="-E3_0" departPos="5.10" departSpeed="0.00" departDelay="9.00" arrival="45.00" arrivalLane="-E0_2" arrivalPos="35.77" arrivalSpeed="12.06" duration="32.00" routeLength="80.34" waitingTime="17.00" waitingCount="2" stopTime="0.00" timeLoss="24.91" rerouteNo="0" devices="tripinfo_f_11.2 routing_f_11.2" vType="DEFAULT_VEHTYPE" speedFactor="0.95" vaporized=""/>
    <tripinfo id="f_5.4" depart="28.00" departLane="-E2_0" departPos="5.10" departSpeed="0.00" departDelay="20.00" arrival="45.00" arrivalLane="E1_2" arrivalPos="39.21" arrivalSpeed="12.70" duration="17.00" routeLength="87.78" waitingTime="1.00" waitingCount="1" stopTime="0.00" timeLoss="9.40" rerouteNo="0" devices="tripinfo_f_5.4 routing_f_5.4" vType="DEFAULT_VEHTYPE" speedFactor="1.00" vaporized=""/>
    <tripinfo id="f_11.3" depart="19.00" departLane="-E3_0" departPos="5.10" departSpeed="0.00" departDelay="13.00" arrival="47.00" arrivalLane="-E0_2" arrivalPos="35.77" arrivalSpeed="11.71" duration="28.00" routeLength="80.34" waitingTime="12.00" waitingCount="2" stopTime="0.00" timeLoss="20.86" rerouteNo="0" devices="tripinfo_f_11.3 routing_f_11.3" vType="DEFAULT_VEHTYPE" speedFactor="0.90" vaporized=""/>
    <tripinfo id="f_5.5" depart="34.00" departLane="-E2_0" departPos="5.10" departSpeed="0.00" departDelay="24.00" arrival="47.00" arrivalLane="E1_2" arrivalPos="39.21" arrivalSpeed="12.52" duration="13.00" routeLength="87.78" waitingTime="1.00" waitingCount="1" stopTime="0.00" timeLoss="5.06" rerouteNo="0" devices="tripinfo_f_5.5 routing_f_5.5" vType="DEFAULT_VEHTYPE" speedFactor="0.91" vaporized=""/>
    <tripinfo id="f_3.5" depart="30.00" departLane="-E2_0" departPos="5.10" departSpeed="0.00" departDelay="20.00" arrival="51.00" arrivalLane="-E0_0" arrivalPos="35.77" arrivalSpeed="11.77" duration="21.00" routeLength="68.83" waitingTime="7.00" waitingCount="1" stopTime="0.00" timeLoss="14.26" rerouteNo="0" devices="tripinfo_f_3.5 routing_f_3.5" vType="DEFAULT_VEHTYPE" speedFactor="0.88" vaporized=""/>
    <tripinfo id="f_9.5" depart="39.00" departLane="-E3_0" departPos="5.10" departSpeed="0.00" departDelay="29.00" arrival="51.00" arrivalLane="E1_0" arrivalPos="39.21" arrivalSpeed="12.15" duration="12.00" routeLength="68.27" waitingTime="0.00" waitingCount="0" stopTime="0.00" timeLoss="6.17" rerouteNo="0" devices="tripinfo_f_9.5 routing_f_9.5" vType="DEFAULT_VEHTYPE" speedFactor="0.97" vaporized=""/>
    <tripinfo id="f_0.0" depart="0.00" departLane="E0_0" departPos="5.10" departSpeed="0.00" departDelay="0.00" arrival="52.00" arrivalLane="E1_1" arrivalPos="39.21" arrivalSpeed="14.57" duration="52.00" routeLength="97.14" waitingTime="37.00" waitingCount="1" stopTime="0.00" timeLoss="45.14" rerouteNo="0" devices="tripinfo_f_0.0 routing_f_0.0" vType="DEFAULT_VEHTYPE" speedFactor="1.06" vaporized=""/>
    <tripinfo id="f_6.0" depart="0.00" departLane="-E1_0" departPos="5.10" departSpeed="0.00" departDelay="0.00" arrival="52.00" arrivalLane="-E0_1" arrivalPos="35.77" arrivalSpeed="12.78" duration="52.00" routeLength="97.10" waitingTime="37.00" waitingCount="1" stopTime="0.00" timeLoss="44.19" rerouteNo="0" devices="tripinfo_f_6.0 routing_f_6.0" vType="DEFAULT_VEHTYPE" speedFactor="0.94" vaporized=""/>
    <tripinfo id="f_0.1" depart="5.00" departLane="E0_0" departPos="5.10" departSpeed="0.00" departDelay="3.00" arrival="54.00" arrivalLane="E1_1" arrivalPos="39.21" arrivalSpeed="13.39" duration="49.00" routeLength="97.14" waitingTime="34.00" waitingCount="1" stopTime="0.00" timeLoss="42.12" rerouteNo="0" devices="tripinfo_f_0.1 routing_f_0.1" vType="DEFAULT_VEHTYPE" speedFactor="1.05" vaporized=""/>
    <tripinfo id="f_6.1" depart="5.00" departLane="-E1_0" departPos="5.10" departSpeed="0.00" departDelay="3.00" arrival="54.00" arrivalLane="-E0_1" arrivalPos="35.77" arrivalSpeed="13.88" duration="49.00" routeLength="97.10" waitingTime="34.00" waitingCount="1" stopTime="0.00" timeLoss="41.86" rerouteNo="0" devices="tripinfo_f_6.1 routing_f_6.1" vType="DEFAULT_VEHTYPE" speedFactor="1.02" vaporized=""/>
    <tripinfo id="f_3.6" depart="36.00" departLane="-E2_0" departPos="5.10" departSpeed="0.00" departDelay="24.00" arrival="54.00" arrivalLane="-E0_0" arrivalPos="35.77" arrivalSpeed="13.20" duration="18.00" routeLength="68.83" waitingTime="5.00" waitingCount="1" stopTime="0.00" timeLoss="11.08" rerouteNo="0" devices="tripinfo_f_3.6 routing_f_3.6" vType="DEFAULT_VEHTYPE" speedFactor="0.98" vaporized=""/>
    <tripinfo id="f_9.6" depart="45.00" departLane="-E3_0" departPos="5.10" departSpeed="0.00" departDelay="33.00" arrival="55.00" arrivalLane="E1_0" arrivalPos="39.21" arrivalSpeed="13.23" duration="10.00" routeLength="68.27" waitingTime="0.00" waitingCount="0" stopTime="0.00" timeLoss="4.25" rerouteNo="0" devices="tripinfo_f_9.6 routing_f_9.6" vType="DEFAULT_VEHTYPE" speedFactor="0.97" vaporized=""/>
    <tripinfo id="f_6.2" depart="10.00" departLane="-E1_0" departPos="5.10" departSpeed="0.00" departDelay="6.00" arrival="56.00" arrivalLane="-E0_1" arrivalPos="35.77" arrivalSpeed="13.11" duration="46.00" routeLength="97.10" waitingTime="30.00" waitingCount="1" stopTime="0.00" timeLoss="38.60" rerouteNo="0" devices="tripinfo_f_6.2 routing_f_6.2" vType="DEFAULT_VEHTYPE" speedFactor="1.01" vaporized=""/>
    <tripinfo id="f_3.7" depart="42.00" departLane="-E2_0" departPos="5.10" departSpeed="0.00" departDelay="28.00" arrival="56.00" arrivalLane="-E0_0" arrivalPos="35.77" arrivalSpeed="13.58" duration="14.00" routeLength="68.83" waitingTime="0.00" waitingCount="0" stopTime="0.00" timeLoss="8.23" rerouteNo="0" devices="tripinfo_f_3.7 routing_f_3.7" vType="DEFAULT_VEHTYPE" speedFactor="1.02" vaporized=""/>
    <tripinfo id="f_0.2" depart="10.00" departLane="E0_0" departPos="5.10" departSpeed="0.00" departDelay="6.00" arrival="57.00" arrivalLane="E1_1" arrivalPos="39.21" arrivalSpeed="10.70" duration="47.00" routeLength="97.14" waitingTime="30.00" waitingCount="1" stopTime="0.00" timeLoss="37.76" rerouteNo="0" devices="tripinfo_f_0.2 routing_f_0.2" vType="DEFAULT_VEHTYPE" speedFactor="0.83" vaporized=""/>
    <tripinfo id="f_0.3" depart="15.00" departLane="E0_0" departPos="5.10" departSpeed="0.00" departDelay="9.00" arrival="58.00" arrivalLane="E1_1" arrivalPos="39.21" arrivalSpeed="13.10" duration="43.00" routeLength="97.14" waitingTime="28.00" waitingCount="1" stopTime="0.00" timeLoss="35.61" rerouteNo="0" devices="tripinfo_f_0.3 routing_f_0.3" vType="DEFAULT_VEHTYPE" speedFactor="0.97" vaporized=""/>
    <tripinfo id="f_6.3" depart="15.00" departLane="-E1_0" departPos="5.10" departSpeed="0.00" departDelay="9.00" arrival="58.00" arrivalLane="-E0_1" arrivalPos="35.77" arrivalSpeed="14.10" duration="43.00" routeLength="97.10" waitingTime="27.00" waitingCount="1" stopTime="0.00" timeLoss="35.89" rerouteNo="0" devices="tripinfo_f_6.3 routing_f_6.3" vType="DEFAULT_VEHTYPE" speedFactor="1.04" vaporized=""/>
    <tripinfo id="f_6.4" depart="21.00" departLane="-E1_0" departPos="5.10" departSpeed="0.00" departDelay="13.00" arrival="60.00" arrivalLane="-E0_1" arrivalPos="35.77" arrivalSpeed="12.23" duration="39.00" routeLength="97.10" waitingTime="23.00" waitingCount="1" stopTime="0.00" timeLoss="31.07" rerouteNo="0" devices="tripinfo_f_6.4 routing_f_6.4" vType="DEFAULT_VEHTYPE" speedFactor="0.90" vaporized=""/>
    <tripinfo id="f_0.4" depart="49.00" departLane="E0_0" departPos="5.10" departSpeed="0.00" departDelay="41.00" arrival="61.00" arrivalLane="E1_1" arrivalPos="39.21" arrivalSpeed="11.05" duration="12.00" routeLength="97.14" waitingTime="0.00" waitingCount="0" stopTime="0.00" timeLoss="3.14" rerouteNo="0" devices="tripinfo_f_0.4 routing_f_0.4" vType="DEFAULT_VEHTYPE" speedFactor="0.88" vaporized=""/>
    <tripinfo id="f_1.4" depart="50.00" departLane="E0_0" departPos="5.10" departSpeed="0.00" departDelay="42.00" arrival="61.00" arrivalLane="E3_0" arrivalPos="25.12" arrivalSpeed="11.19" duration="11.00" routeLength="64.90" waitingTime="0.00" waitingCount="0" stopTime="0.00" timeLoss="3.85" rerouteNo="0" devices="tripinfo_f_1.4 routing_f_1.4" vType="DEFAULT_VEHTYPE" speedFactor="0.85" vaporized=""/>
    <tripinfo id="f_6.5" depart="51.00" departLane="-E1_0" departPos="5.10" departSpeed="0.00" departDelay="41.00" arrival="62.00" arrivalLane="-E0_1" arrivalPos="35.77" arrivalSpeed="14.35" duration="11.00" routeLength="97.10" waitingTime="0.00" waitingCount="0" stopTime="0.00" timeLoss="3.69" rerouteNo="0" devices="tripinfo_f_6.5 routing_f_6.5" vType="DEFAULT_VEHTYPE" speedFactor="1.04" vaporized=""/>
    <tripinfo id="f_7.5" depart="53.00" departLane="-E1_0" departPos="5.10" departSpeed="0.00" departDelay="43.00" arrival="64.00" arrivalLane="E2_0" arrivalPos="29.14" arrivalSpeed="10.93" duration="11.00" routeLength="72.30" waitingTime="0.00" waitingCount="0" stopTime="0.00" timeLoss="4.81" rerouteNo="0" devices="tripinfo_f_7.5 routing_f_7.5" vType="DEFAULT_VEHTYPE" speedFactor="1.02" vaporized=""/>
    <tripinfo id="f_0.5" depart="54.00" departLane="E0_0" departPos="5.10" departSpeed="0.00" departDelay="44.00" arrival="65.00" arrivalLane="E1_1" arrivalPos="39.21" arrivalSpeed="14.84" duration="11.00" routeLength="97.14" waitingTime="0.00" waitingCount="0" stopTime="0.00" timeLoss="3.80" rerouteNo="0" devices="tripinfo_f_0.5 routing_f_0.5" vType="DEFAULT_VEHTYPE" speedFactor="1.08" vaporized=""/>
    <tripinfo id="f_1.5" depart="55.00" departLane="E0_0" departPos="5.10" departSpeed="0.00" departDelay="45.00" arrival="65.00" arrivalLane="E3_0" arrivalPos="25.12" arrivalSpeed="12.95" duration="10.00" routeLength="64.90" waitingTime="0.00" waitingCount="0" stopTime="0.00" timeLoss="4.71" rerouteNo="0" devices="tripinfo_f_1.5 routing_f_1.5" vType="DEFAULT_VEHTYPE" speedFactor="1.12" vaporized=""/>
    <tripinfo id="f_8.0" depart="4.00" departLane="-E1_0" departPos="5.10" departSpeed="0.00" departDelay="4.00" arrival="68.00" arrivalLane="E3_2" arrivalPos="25.12" arrivalSpeed="11.59" duration="64.00" routeLength="83.75" waitingTime="45.00" waitingCount="2" stopTime="0.00" timeLoss="57.83" rerouteNo="0" devices="tripinfo_f_8.0 routing_f_8.0" vType="DEFAULT_VEHTYPE" speedFactor="1.09" vaporized=""/>
    <tripinfo id="f_6.6" depart="57.00" departLane="-E1_0" departPos="5.10" departSpeed="0.00" departDelay="45.00" arrival="69.00" arrivalLane="-E0_1" arrivalPos="35.77" arrivalSpeed="13.13" duration="12.00" routeLength="97.10" waitingTime="1.00" waitingCount="1" stopTime="0.00" timeLoss="4.57" rerouteNo="0" devices="tripinfo_f_6.6 routing_f_6.6" vType="DEFAULT_VEHTYPE" speedFactor="1.03" vaporized=""/>
    <tripinfo id="f_8.1" depart="9.00" departLane="-E1_0" departPos="5.10" departSpeed="0.00" departDelay="7.00" arrival="70.00" arrivalLane="E3_2" arrivalPos="25.12" arrivalSpeed="12.75" duration="61.00" routeLength="83.75" waitingTime="40.00" waitingCount="2" stopTime="0.00" timeLoss="54.02" rerouteNo="0" devices="tripinfo_f_8.1 routing_f_8.1" vType="DEFAULT_VEHTYPE" speedFactor="0.97" vaporized=""/>
    <tripinfo id="f_7.6" depart="59.00" departLane="-E1_0" departPos="5.10" departSpeed="0.00" departDelay="47.00" arrival="70.00" arrivalLane="E2_0" arrivalPos="29.14" arrivalSpeed="12.11" duration="11.00" routeLength="72.30" waitingTime="0.00" waitingCount="0" stopTime="0.00" timeLoss="4.53" rerouteNo="0" devices="tripinfo_f_7.6 routing_f_7.6" vType="DEFAULT_VEHTYPE" speedFactor="1.00" vaporized=""/>
    <tripinfo id="f_1.6" depart="61.00" departLane="E0_0" departPos="5.10" departSpeed="0.00" departDelay="49.00" arrival="71.00" arrivalLane="E3_0" arrivalPos="25.12" arrivalSpeed="13.01" duration="10.00" routeLength="64.90" waitingTime="0.00" waitingCount="0" stopTime="0.00" timeLoss="4.40" rerouteNo="0" devices="tripinfo_f_1.6 routing_f_1.6" vType="DEFAULT_VEHTYPE" speedFactor="1.06" vaporized=""/>
    <tripinfo id="f_2.0" depart="4.00" departLane="E0_0" departPos="5.10" departSpeed="0.00" departDelay="4.00" arrival="73.00" arrivalLane="E2_2" arrivalPos="29.14" arrivalSpeed="12.10" duration="69.00" routeLength="84.36" waitingTime="48.00" waitingCount="2" stopTime="0.00" timeLoss="62.25" rerouteNo="0" devices="tripinfo_f_2.0 routing_f_2.0" vType="DEFAULT_VEHTYPE" speedFactor="1.03" vaporized=""/>
    <tripinfo id="f_8.2" depart="14.00" departLane="-E1_0" departPos="5.10" departSpeed="0.00" departDelay="10.00" arrival="73.00" arrivalLane="E3_2" arrivalPos="25.12" arrivalSpeed="13.48" duration="59.00" routeLength="83.75" waitingTime="37.00" waitingCount="2" stopTime="0.00" timeLoss="51.51" rerouteNo="0" devices="tripinfo_f_8.2 routing_f_8.2" vType="DEFAULT_VEHTYPE" speedFactor="0.99" vaporized=""/>
    <tripinfo id="f_2.1" depart="9.00" departLane="E0_0" departPos="5.10" departSpeed="0.00" departDelay="7.00" arrival="75.00" arrivalLane="E2_2" arrivalPos="29.14" arrivalSpeed="11.75" duration="66.00" routeLength="84.36" waitingTime="46.00" waitingCount="2" stopTime="0.00" timeLoss="57.87" rerouteNo="0" devices="tripinfo_f_2.1 routing_f_2.1" vType="DEFAULT_VEHTYPE" speedFactor="0.88" vaporized=""/>
    <tripinfo id="f_8.3" depart="19.00" departLane="-E1_0" departPos="5.10" departSpeed="0.00" departDelay="13.00" arrival="75.00" arrivalLane="E3_2" arrivalPos="25.12" arrivalSpeed="12.85" duration="56.00" routeLength="83.75" waitingTime="33.00" waitingCount="3" stopTime="0.00" timeLoss="48.60" rerouteNo="0" devices="tripinfo_f_8.3 routing_f_8.3" vType="DEFAULT_VEHTYPE" speedFactor="1.00" vaporized=""/>
    <tripinfo id="f_7.7" depart="65.00" departLane="-E1_0" departPos="5.10" departSpeed="0.00" departDelay="51.00" arrival="76.00" arrivalLane="E2_0" arrivalPos="29.14" arrivalSpeed="11.65" duration="11.00" routeLength="72.30" waitingTime="0.00" waitingCount="0" stopTime="0.00" timeLoss="4.07" rerouteNo="0" devices="tripinfo_f_7.7 routing_f_7.7" vType="DEFAULT_VEHTYPE" speedFactor="0.92" vaporized=""/>
    <tripinfo id="f_8.6" depart="62.00" departLane="-E1_0" departPos="5.10" departSpeed="0.00" departDelay="50.00" arrival="77.00" arrivalLane="E3_2" arrivalPos="25.12" arrivalSpeed="13.61" duration="15.00" routeLength="83.75" waitingTime="1.00" waitingCount="1" stopTime="0.00" timeLoss="8.29" rerouteNo="0" devices="tripinfo_f_8.6 routing_f_8.6" vType="DEFAULT_VEHTYPE" speedFactor="1.02" vaporized=""/>
    <tripinfo id="f_6.7" depart="63.00" departLane="-E1_0" departPos="5.10" departSpeed="0.00" departDelay="49.00" arrival="79.00" arrivalLane="-E0_1" arrivalPos="35.77" arrivalSpeed="10.40" duration="16.00" routeLength="97.10" waitingTime="0.00" waitingCount="0" stopTime="0.00" timeLoss="7.01" rerouteNo="0" devices="tripinfo_f_6.7 routing_f_6.7" vType="DEFAULT_VEHTYPE" speedFactor="0.83" vaporized=""/>